ITEM: TIMESTEP
0
ITEM: NUMBER OF ATOMS
2100
ITEM: BOX BOUNDS
-19.4768        19.4768
-19.4768        19.4768
-19.4768        19.4768
ITEM: ATOMS index type x y z b charge
1              1         4.6179    0.000371137    0.000646086              0              0
2              1        3.75188       0.500371    0.000646086              0              0
3              1        2.88585        1.00037    0.000646086    1.68458e-14              0
4              1        2.01983        1.50037    0.000646086   -5.14996e-16              0
5              1         1.1538        2.00037    0.000646086   -3.76218e-14              0
6              1       0.287775        2.50037    0.000646086    9.59519e-15              0
7              1       -0.57825        3.00037    0.000646086    4.06576e-16              0
8              1       -1.44428        3.50037    0.000646086              0              0
9              1        -2.3103        4.00037    0.000646086              0              0
10              1        -2.3103        3.00037    0.000646086              0              0
11              1        -2.3103        2.00037    0.000646086    3.60362e-14              0
12              1        -2.3103        1.00037    0.000646086   -3.75676e-14              0
13              1        -2.3103    0.000371137    0.000646086    -4.9277e-14              0
14              1        -2.3103      -0.999629    0.000646086    3.06287e-15              0
15              1        -2.3103       -1.99963    0.000646086   -2.01662e-14              0
16              1        -2.3103       -2.99963    0.000646086              0              0
17              1        -2.3103       -3.99963    0.000646086              0              0
18              1       -1.44428       -3.49963    0.000646086              0              0
19              1       -0.57825       -2.99963    0.000646086   -4.67562e-15              0
20              1       0.287775       -2.49963    0.000646086    -2.5018e-14              0
21              1         1.1538       -1.99963    0.000646086     5.8818e-14              0
22              1        2.01983       -1.49963    0.000646086   -4.97107e-14              0
23              1        2.88585      -0.999629    0.000646086      4.555e-14              0
24              1        3.75188      -0.499629    0.000646086              0              0
25              1        2.88585    0.000371137    0.000646086   -5.29904e-15              0
26              1        2.01983       0.500371    0.000646086   -2.18602e-14              0
27              1         1.1538        1.00037    0.000646086    2.22532e-14              0
28              1       0.287775        1.50037    0.000646086    4.45878e-14              0
29              1       -0.57825        2.00037    0.000646086    1.68729e-14              0
30              1       -1.44428        2.50037    0.000646086    4.31377e-14              0
31              1       -1.44428        1.50037    0.000646086    1.28749e-15              0
32              1       -1.44428       0.500371    0.000646086   -1.05249e-13              0
33              1       -1.44428      -0.499629    0.000646086   -1.38127e-13              0
34              1       -1.44428       -1.49963    0.000646086   -4.27447e-14              0
35              1       -1.44428       -2.49963    0.000646086   -3.96276e-14              0
36              1       -0.57825       -1.99963    0.000646086    -7.1991e-14              0
37              1       0.287775       -1.49963    0.000646086   -8.61263e-14              0
38              1         1.1538      -0.999629    0.000646086    -1.1006e-13              0
39              1        2.01983      -0.499629    0.000646086   -5.75576e-14              0
40              1         1.1538    0.000371137    0.000646086   -9.83913e-14              0
41              1       0.287775       0.500371    0.000646086    7.73849e-15              0
42              1       -0.57825        1.00037    0.000646086    1.71711e-14              0
43              1       -0.57825    0.000371137    0.000646086   -1.78555e-13              0
44              1       -0.57825      -0.999629    0.000646086   -2.07299e-13              0
45              1       0.287775      -0.499629    0.000646086   -1.94885e-13              0
46              2        4.00894    0.000371137       0.793846              0              0
47              1        3.14969        0.49646       0.793846    2.80131e-14              0
48              2        2.29044       0.992549       0.793846    8.34836e-14              0
49              1        1.43119        1.48864       0.793846    8.63025e-14              0
50              1       0.571934        1.98473       0.793846    9.04496e-14              0
51              2      -0.287317        2.48082       0.793846    2.52348e-14              0
52              1       -1.14657        2.97691       0.793846   -3.66189e-14              0
53              2       -2.00582        3.47299       0.793846              0              0
54              1       -2.00582        2.48082       0.793846   -6.15285e-15              0
55              2       -2.00582        1.48864       0.793846   -1.61709e-13              0
56              1       -2.00582        0.49646       0.793846   -1.63254e-13              0
57              1       -2.00582      -0.495718       0.793846     6.7085e-15              0
58              2       -2.00582        -1.4879       0.793846   -2.26463e-14              0
59              1       -2.00582       -2.48007       0.793846   -3.18213e-14              0
60              2       -2.00582       -3.47225       0.793846              0              0
61              1       -1.14657       -2.97616       0.793846    4.13759e-14              0
62              2      -0.287317       -2.48007       0.793846     5.7666e-14              0
63              1       0.571934       -1.98399       0.793846     1.5828e-13              0
64              1        1.43119        -1.4879       0.793846    1.34644e-13              0
65              2        2.29044      -0.991807       0.793846    6.42254e-14              0
66              1        3.14969      -0.495718       0.793846    1.26825e-13              0
67              2        3.39998    0.000371137        1.58705    3.26074e-14              0
68              1        2.54976       0.491246        1.58705    2.07625e-14              0
69              1        1.69954        0.98212        1.58705    1.02159e-13              0
70              2        0.84932        1.47299        1.58705    1.32896e-13              0
71              1   -0.000900007        1.96387        1.58705    1.02701e-13              0
72              1       -0.85112        2.45474        1.58705   -8.40257e-15              0
73              2       -1.70134        2.94562        1.58705   -2.58582e-14              0
74              1       -1.70134        1.96387        1.58705   -5.20282e-14              0
75              1       -1.70134        0.98212        1.58705   -1.07634e-13              0
76              2       -1.70134    0.000371137        1.58705    4.14165e-14              0
77              1       -1.70134      -0.981378        1.58705    2.84468e-14              0
78              1       -1.70134       -1.96313        1.58705   -6.16098e-14              0
79              2       -1.70134       -2.94488        1.58705     1.6778e-14              0
80              1       -0.85112         -2.454        1.58705    1.06401e-13              0
81              1   -0.000900007       -1.96313        1.58705    1.53618e-13              0
82              2        0.84932       -1.47225        1.58705    2.73178e-13              0
83              1        1.69954      -0.981378        1.58705    7.44576e-14              0
84              1        2.54976      -0.490503        1.58705    5.67851e-14              0
85              1        2.79102    0.000371137        2.38025   -2.93548e-14              0
86              1        1.95344       0.483945        2.38025    2.03288e-16              0
87              1        1.11587        0.96752        2.38025    4.69053e-14              0
88              1       0.278292        1.45109        2.38025   -8.44322e-15              0
89              1      -0.559283        1.93467        2.38025    5.32885e-14              0
90              1       -1.39686        2.41824        2.38025      2.865e-14              0
91              1       -1.39686        1.45109        2.38025    8.27111e-14              0
92              1       -1.39686       0.483945        2.38025    3.49655e-14              0
93              1       -1.39686      -0.483203        2.38025   -2.06812e-14              0
94              1       -1.39686       -1.45035        2.38025   -1.30917e-14              0
95              1       -1.39686        -2.4175        2.38025    2.92328e-14              0
96              1      -0.559283       -1.93393        2.38025    1.36867e-13              0
97              1       0.278292       -1.45035        2.38025    1.11009e-13              0
98              1        1.11587      -0.966777        2.38025   -4.21484e-15              0
99              1        1.95344      -0.483203        2.38025   -7.64905e-14              0
100              1        1.11587    0.000371137        2.38025   -4.41948e-14              0
101              1       0.278292       0.483945        2.38025    -7.4444e-14              0
102              1      -0.559283        0.96752        2.38025   -6.53909e-14              0
103              1      -0.559283    0.000371137        2.38025    -1.5084e-13              0
104              1      -0.559283      -0.966777        2.38025   -4.74338e-15              0
105              1       0.278292      -0.483203        2.38025   -5.92923e-14              0
106              1        4.61913   -0.000512079        12.9853              0              0
107              1        3.75311       0.499488        12.9853              0              0
108              1        2.88708       0.999488        12.9853    1.68458e-14              0
109              1        2.02106        1.49949        12.9853   -4.33681e-16              0
110              1        1.15503        1.99949        12.9853   -3.75676e-14              0
111              1       0.289006        2.49949        12.9853    9.74427e-15              0
112              1       -0.57702        2.99949        12.9853    5.01444e-16              0
113              1       -1.44305        3.49949        12.9853              0              0
114              1       -2.30907        3.99949        12.9853              0              0
115              1       -2.30907        2.99949        12.9853              0              0
116              1       -2.30907        1.99949        12.9853     3.6253e-14              0
117              1       -2.30907       0.999488        12.9853   -3.76489e-14              0
118              1       -2.30907   -0.000512079        12.9853   -4.93041e-14              0
119              1       -2.30907       -1.00051        12.9853    3.07642e-15              0
120              1       -2.30907       -2.00051        12.9853   -2.04372e-14              0
121              1       -2.30907       -3.00051        12.9853              0              0
122              1       -2.30907       -4.00051        12.9853              0              0
123              1       -1.44305       -3.50051        12.9853              0              0
124              1       -0.57702       -3.00051        12.9853   -4.78404e-15              0
125              1       0.289006       -2.50051        12.9853   -2.51535e-14              0
126              1        1.15503       -2.00051        12.9853    5.88451e-14              0
127              1        2.02106       -1.50051        12.9853   -4.95751e-14              0
128              1        2.88708       -1.00051        12.9853    4.55907e-14              0
129              1        3.75311      -0.500512        12.9853              0              0
130              1        2.88708   -0.000512079        12.9853   -5.24483e-15              0
131              1        2.02106       0.499488        12.9853   -2.15892e-14              0
132              1        1.15503       0.999488        12.9853    2.23888e-14              0
133              1       0.289006        1.49949        12.9853    4.47233e-14              0
134              1       -0.57702        1.99949        12.9853     1.7293e-14              0
135              1       -1.44305        2.49949        12.9853    4.34358e-14              0
136              1       -1.44305        1.49949        12.9853    1.61275e-15              0
137              1       -1.44305       0.499488        12.9853   -1.05276e-13              0
138              1       -1.44305      -0.500512        12.9853   -1.38073e-13              0
139              1       -1.44305       -1.50051        12.9853   -4.29209e-14              0
140              1       -1.44305       -2.50051        12.9853   -3.98986e-14              0
141              1       -0.57702       -2.00051        12.9853   -7.22621e-14              0
142              1       0.289006       -1.50051        12.9853   -8.60585e-14              0
143              1        1.15503       -1.00051        12.9853   -1.09708e-13              0
144              1        2.02106      -0.500512        12.9853   -5.72052e-14              0
145              1        1.15503   -0.000512079        12.9853   -9.80119e-14              0
146              1       0.289006       0.499488        12.9853    7.69784e-15              0
147              1       -0.57702       0.999488        12.9853    1.73743e-14              0
148              1       -0.57702   -0.000512079        12.9853   -1.78622e-13              0
149              1       -0.57702       -1.00051        12.9853   -2.07286e-13              0
150              1       0.289006      -0.500512        12.9853   -1.94804e-13              0
151              2        4.01017   -0.000512079        13.7785              0              0
152              1        3.15092       0.495577        13.7785    2.80266e-14              0
153              2        2.29167       0.991666        13.7785    8.37275e-14              0
154              1        1.43242        1.48776        13.7785    8.64787e-14              0
155              1       0.573165        1.98384        13.7785    9.07613e-14              0
156              2      -0.286087        2.47993        13.7785    2.56685e-14              0
157              1       -1.14534        2.97602        13.7785   -3.65647e-14              0
158              2       -2.00459        3.47211        13.7785              0              0
159              1       -2.00459        2.47993        13.7785    -5.9089e-15              0
160              2       -2.00459        1.48776        13.7785   -1.61519e-13              0
161              1       -2.00459       0.495577        13.7785   -1.63335e-13              0
162              1       -2.00459      -0.496601        13.7785    6.74916e-15              0
163              2       -2.00459       -1.48878        13.7785   -2.28767e-14              0
164              1       -2.00459       -2.48096        13.7785   -3.21466e-14              0
165              2       -2.00459       -3.47314        13.7785              0              0
166              1       -1.14534       -2.97705        13.7785    4.13488e-14              0
167              2      -0.286087       -2.48096        13.7785    5.74763e-14              0
168              1       0.573165       -1.98487        13.7785    1.58212e-13              0
169              1        1.43242       -1.48878        13.7785    1.34983e-13              0
170              2        2.29167       -0.99269        13.7785    6.45778e-14              0
171              1        3.15092      -0.496601        13.7785    1.26865e-13              0
172              2        3.40121   -0.000512079        14.5717    3.26074e-14              0
173              1        2.55099       0.490363        14.5717    2.15756e-14              0
174              1        1.70077       0.981237        14.5717    1.03528e-13              0
175              2        0.85055        1.47211        14.5717    1.34062e-13              0
176              1     0.00033053        1.96299        14.5717    1.04287e-13              0
177              1      -0.849889        2.45386        14.5717    -7.5081e-15              0
178              2       -1.70011        2.94474        14.5717   -2.57498e-14              0
179              1       -1.70011        1.96299        14.5717   -5.12421e-14              0
180              1       -1.70011       0.981237        14.5717   -1.06577e-13              0
181              2       -1.70011   -0.000512079        14.5717    4.25414e-14              0
182              1       -1.70011      -0.982261        14.5717     2.9531e-14              0
183              1       -1.70011       -1.96401        14.5717   -6.13794e-14              0
184              2       -1.70011       -2.94576        14.5717    1.66425e-14              0
185              1      -0.849889       -2.45488        14.5717    1.06699e-13              0
186              1     0.00033053       -1.96401        14.5717     1.5439e-13              0
187              2        0.85055       -1.47314        14.5717     2.7452e-13              0
188              1        1.70077      -0.982261        14.5717    7.60839e-14              0
189              1        2.55099      -0.491387        14.5717    5.75847e-14              0
190              1        2.79225   -0.000512079        15.3649   -2.87043e-14              0
191              1        1.95467       0.483062        15.3649    1.21973e-15              0
192              1         1.1171       0.966636        15.3649    4.79082e-14              0
193              1       0.279522        1.45021        15.3649   -7.49455e-15              0
194              1      -0.558053        1.93378        15.3649    5.42101e-14              0
195              1       -1.39563        2.41736        15.3649    2.92464e-14              0
196              1       -1.39563        1.45021        15.3649    8.34971e-14              0
197              1       -1.39563       0.483062        15.3649    3.60226e-14              0
198              1       -1.39563      -0.484086        15.3649   -1.95021e-14              0
199              1       -1.39563       -1.45123        15.3649    -1.2265e-14              0
200              1       -1.39563       -2.41838        15.3649    2.95174e-14              0
201              1      -0.558053       -1.93481        15.3649    1.37504e-13              0
202              1       0.279522       -1.45123        15.3649    1.12107e-13              0
203              1         1.1171      -0.967661        15.3649   -2.99511e-15              0
204              1        1.95467      -0.484086        15.3649   -7.54876e-14              0
205              1         1.1171   -0.000512079        15.3649   -4.41948e-14              0
206              1       0.279522       0.483062        15.3649   -7.45118e-14              0
207              1      -0.558053       0.966636        15.3649   -6.54858e-14              0
208              1      -0.558053   -0.000512079        15.3649    -1.5084e-13              0
209              1      -0.558053      -0.967661        15.3649   -4.74338e-15              0
210              1       0.279522      -0.484086        15.3649   -5.92923e-14              0
211              1        4.61916    0.000451668       -12.9852              0              0
212              1        3.75314       0.500452       -12.9852              0              0
213              1        2.88711        1.00045       -12.9852    1.68322e-14              0
214              1        2.02109        1.50045       -12.9852   -4.20128e-16              0
215              1        1.15506        2.00045       -12.9852   -3.75134e-14              0
216              1       0.289037        2.50045       -12.9852    9.70361e-15              0
217              1      -0.576988        3.00045       -12.9852    3.79471e-16              0
218              1       -1.44301        3.50045       -12.9852              0              0
219              1       -2.30904        4.00045       -12.9852              0              0
220              1       -2.30904        3.00045       -12.9852              0              0
221              1       -2.30904        2.00045       -12.9852    3.60904e-14              0
222              1       -2.30904        1.00045       -12.9852   -3.76489e-14              0
223              1       -2.30904    0.000451668       -12.9852   -4.93041e-14              0
224              1       -2.30904      -0.999548       -12.9852    3.03577e-15              0
225              1       -2.30904       -1.99955       -12.9852   -2.03017e-14              0
226              1       -2.30904       -2.99955       -12.9852              0              0
227              1       -2.30904       -3.99955       -12.9852              0              0
228              1       -1.44301       -3.49955       -12.9852              0              0
229              1      -0.576988       -2.99955       -12.9852   -4.81115e-15              0
230              1       0.289037       -2.49955       -12.9852   -2.51264e-14              0
231              1        1.15506       -1.99955       -12.9852    5.88451e-14              0
232              1        2.02109       -1.49955       -12.9852   -4.95751e-14              0
233              1        2.88711      -0.999548       -12.9852    4.55771e-14              0
234              1        3.75314      -0.499548       -12.9852              0              0
235              1        2.88711    0.000451668       -12.9852   -5.27193e-15              0
236              1        2.02109       0.500452       -12.9852   -2.16027e-14              0
237              1        1.15506        1.00045       -12.9852    2.25243e-14              0
238              1       0.289037        1.50045       -12.9852    4.46827e-14              0
239              1      -0.576988        2.00045       -12.9852    1.70355e-14              0
240              1       -1.44301        2.50045       -12.9852    4.32461e-14              0
241              1       -1.44301        1.50045       -12.9852    1.42302e-15              0
242              1       -1.44301       0.500452       -12.9852   -1.05276e-13              0
243              1       -1.44301      -0.499548       -12.9852   -1.38182e-13              0
244              1       -1.44301       -1.49955       -12.9852   -4.30699e-14              0
245              1       -1.44301       -2.49955       -12.9852   -3.98986e-14              0
246              1      -0.576988       -1.99955       -12.9852   -7.23705e-14              0
247              1       0.289037       -1.49955       -12.9852   -8.60721e-14              0
248              1        1.15506      -0.999548       -12.9852   -1.09653e-13              0
249              1        2.02109      -0.499548       -12.9852   -5.72323e-14              0
250              1        1.15506    0.000451668       -12.9852   -9.78628e-14              0
251              1       0.289037       0.500452       -12.9852    7.80626e-15              0
252              1      -0.576988        1.00045       -12.9852    1.71982e-14              0
253              1      -0.576988    0.000451668       -12.9852   -1.78649e-13              0
254              1      -0.576988      -0.999548       -12.9852   -2.07435e-13              0
255              1       0.289037      -0.499548       -12.9852   -1.94655e-13              0
256              2         4.0102    0.000451668        -12.192              0              0
257              1        3.15095       0.496541        -12.192    2.80131e-14              0
258              2         2.2917        0.99263        -12.192      8.347e-14              0
259              1        1.43245        1.48872        -12.192    8.62754e-14              0
260              1       0.573196        1.98481        -12.192    9.05309e-14              0
261              2      -0.286055         2.4809        -12.192     2.5289e-14              0
262              1       -1.14531        2.97699        -12.192   -3.66596e-14              0
263              2       -2.00456        3.47308        -12.192              0              0
264              1       -2.00456         2.4809        -12.192   -6.07153e-15              0
265              2       -2.00456        1.48872        -12.192   -1.61898e-13              0
266              1       -2.00456       0.496541        -12.192   -1.63579e-13              0
267              1       -2.00456      -0.495637        -12.192    6.50521e-15              0
268              2       -2.00456       -1.48782        -12.192   -2.29715e-14              0
269              1       -2.00456       -2.47999        -12.192    -3.1984e-14              0
270              2       -2.00456       -3.47217        -12.192              0              0
271              1       -1.14531       -2.97608        -12.192    4.13217e-14              0
272              2      -0.286055       -2.47999        -12.192    5.73272e-14              0
273              1       0.573196        -1.9839        -12.192    1.58063e-13              0
274              1        1.43245       -1.48782        -12.192    1.34658e-13              0
275              2         2.2917      -0.991727        -12.192    6.43745e-14              0
276              1        3.15095      -0.495637        -12.192    1.26892e-13              0
277              2        3.40124    0.000451668       -11.3988    3.26074e-14              0
278              1        2.55102       0.491326       -11.3988    2.02746e-14              0
279              1         1.7008       0.982201       -11.3988    1.01143e-13              0
280              2       0.850582        1.47308       -11.3988    1.31812e-13              0
281              1    0.000361846        1.96395       -11.3988    1.01793e-13              0
282              1      -0.849858        2.45482       -11.3988   -8.91756e-15              0
283              2       -1.70008         2.9457       -11.3988    -2.5804e-14              0
284              1       -1.70008        1.96395       -11.3988   -5.26109e-14              0
285              1       -1.70008       0.982201       -11.3988   -1.09003e-13              0
286              2       -1.70008    0.000451668       -11.3988     4.0129e-14              0
287              1       -1.70008      -0.981297       -11.3988    2.71051e-14              0
288              1       -1.70008       -1.96305       -11.3988     -6.245e-14              0
289              2       -1.70008        -2.9448       -11.3988    1.66696e-14              0
290              1      -0.849858       -2.45392       -11.3988    1.05547e-13              0
291              1    0.000361846       -1.96305       -11.3988    1.52168e-13              0
292              2       0.850582       -1.47217       -11.3988    2.72053e-13              0
293              1         1.7008      -0.981297       -11.3988    7.36444e-14              0
294              1        2.55102      -0.490423       -11.3988    5.64734e-14              0
295              1        2.79228    0.000451668       -10.6056   -2.97071e-14              0
296              1         1.9547       0.484026       -10.6056   -5.01444e-16              0
297              1        1.11713         0.9676       -10.6056    4.58618e-14              0
298              1       0.279554        1.45117       -10.6056   -9.45966e-15              0
299              1      -0.558022        1.93475       -10.6056    5.25567e-14              0
300              1        -1.3956        2.41832       -10.6056    2.82299e-14              0
301              1        -1.3956        1.45117       -10.6056    8.18979e-14              0
302              1        -1.3956       0.484026       -10.6056    3.38813e-14              0
303              1        -1.3956      -0.483123       -10.6056   -2.16976e-14              0
304              1        -1.3956       -1.45027       -10.6056   -1.40269e-14              0
305              1        -1.3956       -2.41742       -10.6056    2.86094e-14              0
306              1      -0.558022       -1.93385       -10.6056     1.3581e-13              0
307              1       0.279554       -1.45027       -10.6056    1.09952e-13              0
308              1        1.11713      -0.966697       -10.6056   -4.98733e-15              0
309              1         1.9547      -0.483123       -10.6056   -7.70326e-14              0
310              1        1.11713    0.000451668       -10.6056   -4.40051e-14              0
311              1       0.279554       0.484026       -10.6056   -7.44169e-14              0
312              1      -0.558022         0.9676       -10.6056   -6.53638e-14              0
313              1      -0.558022    0.000451668       -10.6056    -1.5084e-13              0
314              1      -0.558022      -0.966697       -10.6056   -4.78404e-15              0
315              1       0.279554      -0.483123       -10.6056   -5.91568e-14              0
316              1        4.61885        12.9845   -0.000339128              0              0
317              1        3.75283        13.4845   -0.000339128              0              0
318              1         2.8868        13.9845   -0.000339128     1.6778e-14              0